     768
 i =        0, time =        0.000, E =     -4407.8725331940
  O         2.5776836201        3.4251325942       12.4310717426
  O        15.4031732633        1.9870096408        1.4140956883
  O        14.3044345606       10.3577431838        6.9574212094
  O         4.7305305526       -0.7746716937       -0.5257451794
  O         7.8156460265        1.8174513884        0.3770877056
  O        15.6485591508       12.2881389784        5.7636496895
  O         6.3660868421        6.9528628190        4.4871266503
  O         8.4764328378       10.8376961868       16.7466872173
  O        15.7040014685        7.0315458555       16.0138020315
  O         8.6963320921        2.5417905462       12.8384832302
  O        11.5739037451       13.9239781952       16.5533771581
  O         2.6356136263       14.3094109840       15.6355697206
  O         6.3504674047       18.5529267372        3.8970420637
  O        17.1652900839        9.1491742189       19.0682655397
  O         0.2436812284       18.5269272836       10.9219800607
  O         3.8054417736       15.7886614670       17.6989701942
  O         4.3584702699       12.0521462760       14.3652860504
  O        13.8630943532        1.7608798391        3.5039327724
  O        12.1759776278        6.9579239248       -0.0827105727
  O        15.4748281224        4.2457465502       15.8651799297
  O        18.2582206470        0.7728466381       13.2840627271
  O         4.6272345284        5.9675215099       19.0876347036
  O         8.2586093860        0.5746382246       10.9547788904
  O         2.1064966345       15.1336746985        5.5356483823
  O         7.7746515749        7.9005615272       12.2054592626
  O        15.4957622150        2.1089171943        7.4636137120
  O        15.2172907359       18.0767222286       12.6916692608
  O        12.0562245497       11.8933620352        7.9655899296
  O         8.9057564357       17.5123439586        5.0011220649
  O         1.2868901329        7.9380202330       20.4502069595
  O         9.1847064877        7.5281445220       14.7682651193
  O         6.7227790004        1.3008418943       14.4120103043
  O        11.9756544056        8.0709677048       10.3448981402
  O        11.6887641225       12.6456139720       -0.5430685001
  O        11.0993248896        1.4602845062        3.8915491249
  O         0.8717369079       19.2580945165        4.0982472895
  O         7.2360678982        3.8221059993       15.5665945685
  O         8.4914775108       10.1657818076        9.8479628337
  O        10.9438726891        9.4840095714       -0.4579060082
  O         3.5955334241        9.5305185808        9.6239965216
  O         8.0777120608       13.4281922147       16.5661840938
  O         1.6262784628        0.1396653360       15.7176017221
  O        18.9584213258        7.1253496196       18.5107900553
  O         3.7628425219        2.0475938954       10.4051544190
  O         4.7274883877        7.4423216781       11.9815190464
  O        20.0455888785        2.2553879997        4.4617565836
  O         3.9852091494        1.5844683747        1.3688430486
  O        14.9148173948        3.8092640966       13.4891645636
  O        15.7679350878        1.5938240006       11.9885183876
  O        12.4606645624        2.8006392608       10.0011858713
  O        17.0498604143       15.5937270073       10.4102669734
  O        17.4106300458       19.6781802194        1.6849210701
  O         5.2225229860        9.3651162363        5.1612248012
  O        13.1304648461       17.0206689811        0.3294314039
  O        17.7301114501       13.5381516321        6.9181071015
  O        10.8490587275        9.4442954691        8.1773737896
  O         6.3114835746       12.0332253816        4.3722981849
  O         5.1095447144       17.4402901928       12.4931127638
  O         9.6818821070        4.9076628004       14.0620448306
  O        14.3723315514       19.8482283094        9.7217261284
  O         4.1342434357        4.1025103101       14.5766546764
  O         5.4024945622       11.0054579574       16.8814867903
  O         3.0752009926        3.4017810304        3.8060437621
  O        17.7154480716       12.2923816507       16.9357253810
  O         4.6781166727       14.2778146938        3.2173290126
  O         1.3357170334        4.4056669503       18.5890246772
  O        17.1180712072        2.4851304383       17.1833584017
  O        18.9112317278       17.2733206688        2.9853497197
  O        17.3085796362       16.0242305957        5.9975926838
  O        16.3056589285        5.2442477789       11.6242444535
  O        19.4860833952        8.4774461048       10.0435062887
  O        12.2004401306       15.3991171942        9.8269513027
  O         6.0140081601       16.9676688457        7.6250939497
  O         4.9315982780       16.8161146201        1.6063584286
  O        15.7603625220       15.7204032411       15.6300860472
  O        14.7888787384        7.8254292409        5.6518751566
  O        17.5781903975       19.4688013034        6.7859505405
  O        16.3398601493       19.3997293130        4.1941011656
  O         6.9681050249       13.4966292214       14.0712415011
  O         8.7853395884        6.3382796557        5.2157072031
  O         4.9605930416       13.7275477025       10.2018060545
  O        11.1523252590        3.1411391942       17.4553730199
  O        12.7246991381       13.9676235006        1.8154488112
  O        19.9479319747        2.2135665351       17.2315401341
  O        14.4492073431       14.1935617781        4.0809059484
  O        19.1076161207        1.8154519256        7.6377158841
  O        19.8487734146       17.5355660701       16.5704272508
  O         0.2544337021       14.0461846825        3.4431918796
  O        17.5667098808       17.2486126305       13.7277080520
  O        19.4582848731       19.8447702145       18.8584377783
  O        13.4651051855        2.1087931478       16.5868189736
  O        20.6709290391       10.5879689467        3.3334627066
  O        10.0354718679       16.3197778038        0.4142561131
  O         7.9073936758        4.0660445814       10.4133326428
  O         8.0520682357       17.8693950172        2.0218342875
  O         2.9290243239       11.6890558351        8.2062440888
  O         6.9118319273       16.1822563891       14.2263760100
  O        11.4510598653       18.3876557281       15.8870865761
  O        13.7135093321        5.8263480143        9.9613200222
  O         5.7250141711        8.1641886111       15.6581317567
  O        17.0605152989       16.9107030628        0.9223481764
  O         8.5362113367       10.6066486888        5.0647648745
  O         5.8871745582       16.2350524014       10.1491522176
  O        15.4549138503       17.8087702341        7.1680421625
  O        12.5986911553        7.9682623926        4.0614144039
  O        -0.8052479333       15.8873009910       18.6589414984
  O         5.2641717606       17.5755464236       16.2067029761
  O         4.7863369441        6.4399593468        2.0651703945
  O        19.6530614845       15.9217889479        9.9833582428
  O         5.5090969460       20.1477222841       12.0982778601
  O        15.3588089817       14.4362371167       13.3259155143
  O        14.6394345822        9.2072509275       11.5389315662
  O         5.9340168399       20.2319058233       16.9827700136
  O        15.4999610890       18.3096217634       16.4317910170
  O        15.7421373192       12.4307943705        0.9091213921
  O        12.8787058464       19.4633049986        1.4367834309
  O        10.3981435872        5.1266627525       18.8199268940
  O        10.4035593959        8.5934424369        5.5204431901
  O         6.2266570194        5.1080437957       13.2601583601
  O        16.9411290533       18.8076234112       10.2298843454
  O         5.0873835616       11.9524250429        1.1670824351
  O        11.0032278686       18.9740906965        5.6075945871
  O        12.0089969935        4.9861809511       15.6005105675
  O         7.0409525611       14.9195028745        0.3049935935
  O         9.6509123553       16.3070375324        9.2560518806
  O         3.1347735601       16.6740884010        7.7615758623
  O         2.3363527676        3.5526714722        8.6733784184
  O         2.0638363400        1.7609868111        6.4599650192
  O        14.7033021898       16.4764111936        9.5500244138
  O         8.0416406554       14.8924729563        7.2859335684
  O         6.8961973779       10.5027023732        7.3116519572
  O         3.7433022871        3.4419762550       19.1570414513
  O        16.2566474557        9.7772100300        9.2402516942
  O        15.3160702818       13.4495003375       17.4939013221
  O        18.6131696885        1.1988327518       10.2042060906
  O        14.8968463321       14.1071895956        7.9462998941
  O         0.4670149796        5.0654176212        3.5598778416
  O        13.8442864964        7.4449517327       13.9177475064
  O         6.9848086864       10.0987503851        2.2355345805
  O        16.1933495141        6.9635853639        9.0429761835
  O         3.3893165557        5.8744256455        7.7096574211
  O         5.4061960590        7.6500722547        9.2147510519
  O        17.8510635096        4.2968805617       19.2323159306
  O         1.1894616010       10.9733950178       20.3088726088
  O         8.5630154754       17.0778053314       18.1270947499
  O        10.1071845150       11.3892962765        2.3479598673
  O        11.8485152658       11.8215922556       12.4204849148
  O         6.2142141812        5.9050296635       17.0687432279
  O         3.9815674464       12.7523034099        6.0201696804
  O         5.8174977034       13.3693948843        7.5891695428
  O        14.7102052567       10.8124071276       13.6371899370
  O        11.9811348474       18.4251968327        8.2705866026
  O        15.1777799490       15.2763163931       19.5918070364
  O        19.1008132070       14.5641487734       13.3862563974
  O        13.5264604546       11.2925999767       15.9596145182
  O        17.6922717001        4.3732322276        7.8445535342
  O        18.9861856845        4.3770176211       12.4015673630
  O         6.0280311720        1.8754535495        8.3148035922
  O         7.9033261345       15.1725942153        4.3184204139
  O        13.1563266723       12.7744639007       10.2306563147
  O         4.1385232146        9.4454243934       13.6342971814
  O         8.5268728702        4.7467460502        1.1508003217
  O        15.1773887668        4.2460166429        4.0424608165
  O         3.8841069886       19.6113833742        7.2479140491
  O        12.0765560145        1.5655529527        7.5143830127
  O        16.7724866099       19.7987263414       18.1791819498
  O         3.8886371582       10.4427372777       19.0502400464
  O         8.2841604743       15.5178451939       11.4819829541
  O         7.3698950243        7.5875050489        1.3767099404
  O         8.2220820725        1.6958384929        5.0905745374
  O        15.9575084803       12.9334369030       10.2970240254
  O        19.9609144830        1.5678046831        1.3873108991
  O         7.5247925223       19.4389398276        7.2781272746
  O        16.7441736763        9.0345899734        3.9528153017
  O        12.6951366751       10.3647975130        2.4299932791
  O         8.8120032648        5.0505182229        7.7014724115
  O         8.9064687936        6.7367615108       17.2354276371
  O         0.9352661133        7.6693220908        7.3492442846
  O        12.4461718643        5.6610659983        2.3306560217
  O         8.0671941929        9.1286734359       18.6854233212
  O         8.9955791954       12.3258556578       11.9898876119
  O        -0.5170939139        5.8222309964        5.9006588135
  O         0.2148042805        6.9287156479       13.4650045034
  O        13.4367467246       19.4983937996       14.3877790606
  O         2.6480505123       16.8790333713        2.9232694252
  O        18.2537933493        8.3541651733       15.9819191047
  O        13.8980183393        0.0172719883        5.3781740222
  O        17.1820570556        2.5046394011        5.1587930056
  O        10.0483049747       19.3391658457       18.0477944472
  O        19.9629918403       12.3779646592        5.5810822128
  O         1.3717029540       15.7986330570        0.4002751694
  O         2.2228960673        6.8346308614        2.9512325344
  O        14.6826742285        9.3786968068       17.7629962411
  O         2.3443355946        6.4780126381       10.9882299981
  O         9.7989732641       20.2984508916        8.9539365065
  O        13.0649319286       16.3193752837        6.6206699740
  O         2.7780588384        7.8273783244       18.0138045187
  O         1.9946127124        9.9092586229       11.7685890033
  O         0.6002153499       10.5579256665        7.8228201763
  O        11.3588181167        2.4817243299       13.6694911256
  O         5.7916861824       13.7947795252       18.0493925751
  O         2.0232965500       18.6973486745        0.3508661989
  O         9.1889442509       14.1085756623        1.9155196745
  O        17.2059923659       10.5154663656       11.8271048555
  O         2.1074617120        9.1837414452        5.2704448807
  O         9.4656599964       17.6299389080       14.2372724446
  O         0.7158953806       17.9306061945       13.5631817371
  O         1.1122174654       14.2997119794        8.1269890173
  O        -0.0627980307       17.6804609053        6.6153625300
  O         9.6670388996       12.9731697922        5.7539753129
  O         4.0794948850       17.9093089901        5.1961847306
  O        19.6848401011       13.8562004074       16.2590236399
  O         0.0173527956        4.1534585954        9.7603563900
  O        13.3188768598        4.3899172644        7.6263719814
  O        15.1790269759        3.2960209911        9.8344009777
  O         2.9193536814       -0.5082770067        9.9076713033
  O        11.1649534703        8.5269656099       12.9177293810
  O         1.6840434004        5.3472760497       15.8061855051
  O         7.0639032957        3.3757204370        6.5598120270
  O        10.1519694028        4.3673467437        3.4646052826
  O        13.5453496487       10.7610791270       -0.0707663187
  O        17.6255336604        7.7248772449        1.6830221341
  O         1.5154525946        8.1265618859       15.7021970833
  O        17.4003546265       14.7997850397        3.1754316365
  O         9.4086901283       15.5146602460       16.0552562718
  O        10.4090697696       18.3981204591       11.7601854130
  O        12.4808430675        5.0583889273       12.5547489508
  O        15.5929613161        5.2005529206        6.6315709036
  O        12.5668628842       14.2403068453       14.0065401284
  O        17.0592289151       10.6920404064       14.9762109735
  O         2.3953284087       15.1438608473       11.0295650467
  O         8.6502381866        2.0904058005       17.2565684780
  O        13.9628734398        1.1583789861       -0.6871661818
  O         0.4392329718        2.8033711399       13.9873302607
  O         3.0091134573       16.3388799578       13.6078635527
  O        12.8733313844        7.3542546576       16.7430834721
  O        17.7584644511        7.9191844515        6.4997441443
  O        15.8306762271        5.0666402002        1.6675631229
  O        11.2391692765       15.0436999499        4.6653387886
  O        15.1068649408       11.2866255167        3.2487613651
  O         5.0562951230        4.7508547356        5.5646038256
  O        18.2091942349       11.5254800776       19.6260925962
  O         3.6088985818        2.4188526603       16.4423446863
  O        18.8339485648       11.9173100135        9.5230741677
  O        10.8401609755        3.7529905790        6.1616420463
  O         0.7012035995       12.4653715886       11.8528995790
  O        16.8283396467        7.6060617427       12.6077495170
  O         9.8952627191        6.0535987240       11.1032383419
  O        13.6450096128       16.9267986124        4.1609541614
  O         2.2542899010       13.4269029849       21.1451734618
  O         6.5899844271        1.4486338950        3.0360568673
  O        12.3782015771        0.3422991858       11.6077240064
  O        10.0882204553       -0.1646140978        1.2204525106
  O        10.8187357501       15.4193696730       12.3503436294
  O        12.8244935237       16.3391659412       17.1562400666
  O        11.0124476297        9.7062198110       16.5866687630
  H         3.2071733477        2.9242833846       11.8404144026
  H         2.1620188720        4.1767621023       11.9109168325
  H        15.7245416563        2.8843605245        1.8017660032
  H        14.9217068394        1.6223301419        2.1715226922
  H        14.7997923081       10.1320533192        7.7286517498
  H        13.4549113276       10.7905959655        7.2344177846
  H         5.2335333821       -0.3441395592       -1.2043394808
  H         3.8164616941       -1.0498187972       -0.8180054096
  H         7.9957866291        2.7536888725        0.6446659458
  H         8.6195824730        1.3226370138        0.6386143645
  H        15.0434085140       13.0817961122        5.8358924223
  H        15.1643266185       11.5309239837        6.1703812463
  H         6.0579095873        6.8131381128        3.5798470794
  H         6.0515753450        7.8116210803        4.8717513791
  H         7.6224691830       10.6890313461       16.3687910680
  H         8.5821891296       11.8235342193       16.8698790912
  H        15.1858635490        7.3442551799       15.2605039198
  H        16.6788337729        7.3604387135       15.9434663805
  H         8.6685124178        1.7587762625       12.2439505271
  H         9.5730188036        2.5384910265       13.2623274343
  H        10.7264578471       14.3600965779       16.2497547879
  H        11.4935922895       13.4503311983       17.4235261073
  H         1.8185720556       13.9524157220       16.0588284868
  H         3.2554079329       14.7301275317       16.2721247304
  H         6.3526808968       19.5261819963        3.6523211561
  H         7.0280529579       18.2036575629        3.2017896541
  H        17.1408543394        8.8510934736       20.0156282173
  H        17.6943631860        8.3979370144       18.7302375167
  H        -0.3033423790       17.8373159032       10.4800117947
  H        -0.0678882251       19.3962223224       10.7235839279
  H         4.5812108375       15.2186243924       17.8862645304
  H         4.1968848817       16.4134558359       17.0453960582
  H         5.1610428103       12.6456293354       14.2220813092
  H         3.6214107507       12.6331751181       14.6203620711
  H        13.8792980098        1.0975606796        4.2484390166
  H        12.8755951290        1.9123682301        3.3615385955
  H        12.5631312952        6.5617796873        0.7821507582
  H        11.9777963636        7.9050976134        0.0812844253
  H        16.3154135843        3.8873382075       16.2545077045
  H        15.5879389019        5.2242028181       15.9843891789
  H        18.8635660712        1.2349403325       13.8026992689
  H        18.2969960924       -0.1876381493       13.5194853102
  H         4.0260130663        6.6373044793       18.7195554947
  H         5.3048161969        5.8666421960       18.3616444243
  H         7.3688414170        0.3698505832       11.3228472480
  H         8.1425815025        0.9597093123       10.0657745394
  H         2.7561928898       14.4127757087        5.4365267416
  H         1.5839529954       15.1773939662        4.6834925174
  H         8.5204948776        7.5315484248       11.7031170664
  H         7.8654689322        8.8113089672       11.9616437680
  H        15.6341796381        2.6924874109        8.2617960573
  H        14.5596502200        2.3959724585        7.2714262318
  H        14.6568110855       18.7583210661       13.1847233910
  H        15.6769889615       18.6542494739       12.1270564381
  H        11.5066662633       12.5696586692        7.4099373502
  H        12.4380915748       12.4002784724        8.7240434921
  H         8.7519255866       16.5226953037        4.8298281252
  H         8.1740185062       17.9741753182        5.4261103115
  H         1.6237286567        7.6817344448       21.3830951285
  H         1.2893872940        8.9098170803       20.2102037791
  H         9.3545589594        6.6323095539       14.4296974611
  H         8.4924020445        7.8700576390       14.1614015498
  H         7.4476997261        1.8411930449       13.9367288214
  H         6.1882827772        0.9772341658       13.6608254787
  H        11.5420669467        8.2136117988       11.1864014327
  H        11.7171113639        8.5678263128        9.4955103138
  H        12.4594934155       12.0055184401       -0.5112584711
  H        10.9012978925       12.0429381884       -0.4681510904
  H        10.6297334194        1.2622157034        3.0197731601
  H        11.1402993290        0.6462793700        4.4125750838
  H         1.5538278277       19.0049622223        3.4857395126
  H         0.7899148703       20.2062567950        4.0395658430
  H         6.6626795266        3.2315600525       15.0993786230
  H         7.8630168712        3.2609982088       16.1177814031
  H         8.7874191181       11.0035835980       10.3624316879
  H         9.3084056429        9.9512273846        9.3936545051
  H        11.0715340492        9.7069163084       -1.4203939512
  H         9.9457413642        9.4300203806       -0.3792156198
  H         3.0229334990        9.6474039111       10.4511951365
  H         3.4782655227       10.2914274291        8.9566927480
  H         7.3071472163       13.5395525590       17.2182351559
  H         7.6214153792       13.4472119491       15.6446916921
  H         2.4925987123        0.5810391977       15.5108359049
  H         1.2963079025       -0.2860630437       14.9224217601
  H        19.6664058865        7.1932533812       19.1926946418
  H        18.6756240342        6.2295475313       18.6094728723
  H         3.3536623677        2.7497659568        9.8130137272
  H         3.2516789710        1.2582887486       10.1601834351
  H         5.3801543696        7.4500173283       11.2262232990
  H         3.8551196424        7.2075484206       11.6405703882
  H        19.0773133612        2.2241169628        4.5597343145
  H        20.6043999653        2.1195041521        5.2838366150
  H         4.7414016742        1.6704530806        2.0140564255
  H         4.2264212730        0.8755073745        0.7826651908
  H        15.2606429260        4.0170639198       14.3915635554
  H        14.0607469194        4.1685282874       13.4025915593
  H        16.5572216562        1.1538560780       12.3045673958
  H        15.5350153209        2.2097306398       12.6359307509
  H        12.1635494877        2.3036792631       10.7763525542
  H        13.4578656453        2.9910696901       10.2085681147
  H        18.0529911340       15.5728842464       10.4064921022
  H        16.8290285466       15.5799644085       11.3784917179
  H        18.2379784127       20.1639976045        1.7830434778
  H        16.7190574959       20.3678445619        1.5467507932
  H         5.6193694394        9.7546982507        5.9875272881
  H         5.4857481064        9.9652729708        4.4323733392
  H        12.8519180254       17.1488973778       -0.6091209826
  H        13.8760309650       16.3486697665        0.2445889953
  H        17.1117738300       12.9849182123        6.2941887439
  H        17.4934839407       14.4575578939        6.4967603023
  H        11.1780957365       10.3705569835        8.0356260506
  H        10.5482374352        9.1091770358        7.3021694430
  H         7.1259896585       11.5843805789        4.6955867111
  H         6.3460138388       12.9641253444        4.5449955598
  H         4.2683243728       17.0457098824       12.7819605964
  H         5.3015002524       17.0523506885       11.5765818511
  H         9.5721757910        4.8886284469       13.0269662019
  H         8.8535040947        4.5648860122       14.5060596341
  H        14.3779792271       20.3980925225        8.9143363490
  H        15.2600935656       19.4716451485        9.8258907765
  H         4.8795442438        4.5885760108       14.1387281882
  H         3.6795524592        3.7972550830       13.7597220547
  H         4.7330524961       10.9634401092       17.6437982124
  H         4.8776853631       11.2971426165       16.0827885764
  H         2.5394459739        2.8265980000        4.4240373492
  H         3.1949163040        2.7728886202        3.0712177557
  H        18.4284272509       12.8617645192       16.5622570472
  H        18.0097232257       11.8952958847       17.8318106715
  H         4.7980215130       15.1372789287        2.7847464813
  H         3.7336282942       14.0502940851        2.9642838165
  H         2.2936143833        4.1196470633       18.8635625780
  H         1.4048024772        4.6198825607       17.6729061439
  H        18.0351965969        2.3664399027       16.7636500194
  H        16.7359392714        1.5504651258       17.4125742594
  H        19.3223785516       18.0469258807        3.4263439163
  H        19.7141296939       16.8248158011        2.6250044298
  H        16.5442926637       16.5388705562        6.3380542783
  H        18.1143275028       16.5226919446        6.3841052773
  H        15.8365931864        4.8052399414       12.3686220615
  H        16.5303062468        6.2174388576       12.0106281707
  H        19.6474271291        8.4304201799        9.1203188308
  H        18.5308674961        8.7012242214       10.2250115034
  H        13.0009002395       15.9477927322        9.6180040948
  H        11.4005489719       15.8343035382        9.5349738750
  H         5.0870225639       17.1162721963        7.4224994714
  H         6.3828061160       17.8397100984        7.4008692245
  H         4.8172472434       17.2422362259        0.7264560180
  H         5.4266225054       17.5844823555        2.0507134967
  H        15.6526672142       15.0348021191       16.3161351714
  H        15.5157307336       15.2228946020       14.7341928280
  H        14.5411701917        8.5197983265        6.1931115499
  H        15.0080953926        7.0148858772        6.0954426899
  H        18.3162918023       18.8155608129        6.8112443519
  H        17.2432079091       19.3449481458        5.8768611256
  H        16.9364723664       19.3279669053        3.4046448891
  H        16.4815394331       20.4037002561        4.2518109385
  H         7.5911511599       13.0191992618       13.4279351439
  H         7.2071723040       14.5197345036       13.8173649478
  H         7.9184236228        6.5687040744        4.8227451098
  H         9.4154167996        5.7868343912        4.5722334246
  H         5.3483518253       13.5528273979        9.3108469414
  H         5.3875232370       13.0719313676       10.8150200587
  H        12.0456464041        2.6739852603       17.4400131154
  H        11.0217874814        3.7286073082       18.1796780183
  H        12.8685083422       14.8309758676        1.2413749458
  H        12.2316501594       13.3942344127        1.1513310974
  H        20.5495691535        1.8129111323       16.5947752422
  H        20.5372143613        2.7452866543       17.7957696875
  H        13.7964318026       13.8447044027        3.4195112083
  H        14.3251315860       15.1798927096        3.9387167942
  H        18.5560886948        1.0077211589        7.3219284883
  H        19.8982941153        1.7776757573        7.0897229722
  H        20.5527970996       18.0625793835       16.8982553531
  H        19.1350385731       18.2242308499       16.5227424429
  H         0.3890576317       13.4297782416        4.1806137416
  H        -0.7471845772       14.2112324230        3.4006564583
  H        17.5636421355       16.3313662666       14.1031795198
  H        16.6373599239       17.5246032447       13.5318027050
  H        18.4580933780       19.8359500607       18.8685586881
  H        19.7406057896       20.5302720582       18.2312791883
  H        14.2431438742        2.7032753845       16.4178267646
  H        13.6439322865        1.6405978913       17.4754081379
  H        20.0980337413       11.3351198626        3.7115721907
  H        21.0937121135       10.1649554196        4.1284725671
  H        10.9170222623       16.7597520645        0.5644832814
  H         9.6537740944       16.6322093623       -0.4200281361
  H         7.7354608803        4.1599951462        9.4613069259
  H         8.4346005945        3.2213526223       10.4842087745
  H         8.5603269837       18.7045863371        2.0298777049
  H         8.5673273495       17.1984285855        1.5492616357
  H         2.8352968963       12.5675073663        8.6226331523
  H         3.2373742009       11.8599994756        7.2440685982
  H         6.2444911719       16.5720137876       13.5396643606
  H         7.7604454928       16.7697370961       14.2039888936
  H        11.8577083341       17.5385927653       16.2002072939
  H        11.0117598807       18.7605060554       16.7061155002
  H        13.5129518143        5.5565719688       10.8595470765
  H        13.0982697486        6.6069935548        9.8866713809
  H         5.0840454818        8.5738995658       15.0572725782
  H         6.0267555371        8.8897344976       16.2638401020
  H        17.3746944532       16.5305837762        1.8567310882
  H        17.0563335747       17.9023577236        1.0568097487
  H         9.1558824762        9.8026738836        4.9144989812
  H         9.0790678991       11.4646397919        5.0915183483