     768
 i =        0, time =        0.000, E =     -4409.2205898492
  O         2.9203683019        3.5095485500       12.2213760709
  O        16.4929036045        1.4386760277        2.5201779881
  O        14.0188174283       11.3055586865        7.3517444912
  O         3.2534734285        0.1319264573        0.5399895412
  O         8.1807670077        2.2769385454        0.7646956243
  O        15.3687257219       12.9531230171        5.7034875635
  O         5.9533528422        6.5280376960        3.9264291531
  O         8.6173189328       10.8159944869       16.7414725440
  O        15.9968951078        6.0376245716       14.7547779709
  O         9.6603612132        1.6968277000       13.1499951052
  O        11.8796976765       13.9444062773       17.0591038735
  O         2.5218126804       14.5236654752       14.6038702666
  O         6.6230215530       18.6328535231        3.1778411092
  O        16.9091899882        8.5055786770       19.0292651279
  O         0.0469136245       18.5395804009       10.0589568118
  O         4.3187890617       14.8436768503       16.7211796008
  O         3.9921158189       12.6397448976       13.0540192244
  O        14.0409920817        2.4357742696        3.4142225256
  O        11.8745717134        7.7049464640        0.4556319035
  O        15.4153857163        3.7881073392       16.3254078386
  O        18.7026152680        1.2543887644       13.1157720778
  O         4.8081696403        6.0587691429       18.2293712427
  O         7.4264701658        0.7024181069       10.8251818504
  O         3.2474015406       15.4188201609        6.0546850169
  O         7.2568147509        8.7628746894       13.1243426202
  O        15.1588573285        2.4040124067        7.9327106201
  O        15.1753743521       18.6093980698       13.1026658605
  O        11.5122962663       11.3070090262        8.4303395207
  O        10.4810151734       16.6392736609        4.8791138552
  O         0.9834277240        7.8864768187       19.3253979450
  O         9.2509379399        7.6034857893       14.6139453973
  O         7.1158058521        1.1063043843       14.1127842101
  O        11.2345862149        7.1038922955       10.7133541018
  O        12.0440947142       12.7949901674       -0.0321616178
  O         9.9095304475        1.1188692614        4.1493559287
  O         1.1980831954       19.6049667073        4.3935326826
  O         7.8522986713        3.4134370025       15.5030390407
  O         8.6665212684       10.4067412170       11.4627540009
  O        10.6465793024       10.1649961765        0.1329705551
  O         2.8984827722       10.2288202168        9.9835153867
  O         7.4441761161       13.2694002191       16.8209974431
  O         2.9257349742        1.0232357299       14.6703278523
  O        18.6975358849        7.0284261652       17.5522126865
  O         3.6734033962        1.9447925638        9.9784013811
  O         5.0168989591        7.4766080723       11.7557973220
  O        19.2774484475        1.9412052149        5.1139013152
  O         3.5859078786        1.1900914814        3.1030552537
  O        13.8568174199        2.5164878959       14.4936643692
  O        15.9297569728        1.4438889854       12.9536305027
  O        12.4629536518        2.4893634942       10.3996681518
  O        17.2347752869       16.3146917457       10.7332712720
  O        17.5512314376       18.4778954880        0.6126524590
  O         5.4730248280        9.2575497141        4.4626173690
  O        12.9542227790       16.4768610998        0.3047738826
  O        17.9596664682       13.1734732198        6.3636515068
  O        10.0674073797        8.9068978136        8.9137354656
  O         6.3532177487       12.4534011209        4.8096508398
  O         4.0024520483       18.1180261099       11.3066839668
  O         9.7801050959        4.9287070454       14.2200191373
  O        14.3481614704       19.4086247913        7.6124950233
  O         4.4899432073        3.9120159108       14.5056287683
  O         4.4896539845       11.5439930323       16.2423961020
  O         2.8994626296        3.2467476859        4.7953295336
  O        17.7613511718       12.3445196180       16.3646073577
  O         4.5462114084       13.1866108548        2.5752725000
  O         1.4280033891        3.5954214351       17.2178904480
  O        17.4773581706        2.0296694431       16.1501448236
  O        19.2174157915       18.1233977723        2.8362502597
  O        18.3769183443       15.8303124058        5.6130550046
  O        16.3009321264        5.2249872612       11.9766976650
  O        17.8929138907        8.7635675079        8.5137788546
  O        12.2986660169       15.3067407479       10.8865410434
  O         6.7641694563       16.3315129091        7.4287046530
  O         4.6569286420       17.5621584195        1.6210265670
  O        15.4945001762       15.4911601969       15.0070560271
  O        14.2659749704        8.8251148030        6.2100681775
  O        17.8857827644       19.3048527688        7.0275898165
  O        17.0570814788       19.0398165228        4.3311200467
  O         6.3665746004       13.4953213000       14.3513315727
  O         8.5307419776        6.4586851528        5.0416963809
  O         4.3591921976       13.8205624438       10.5358150347
  O        11.5585996748        3.8107034022       17.9772454506
  O        12.6238470715       14.1078577220        2.4330113892
  O        20.2351720914        1.2745450752       16.0015511839
  O        15.1096341949       14.7596828821        3.6562464428
  O        18.5477076907        1.9351453820        8.1722245902
  O        18.7727240931       16.6264316235       16.1455869059
  O         0.6285773569       13.4554631241        2.8407444406
  O        17.3126572133       16.9134304973       13.5989248842
  O        19.2772549525       18.9650878071       17.5527056884
  O        14.0039649868        2.9252755946       18.6914288787
  O        19.6991807585        9.5129422358        3.0011797843
  O        10.4026156432       16.2205452117        1.3504723222
  O         7.7790721432        3.4973295804       11.9531362650
  O         9.3098778991       18.5447513534        2.6660940149
  O         2.7466031842       12.1400113987        7.9306683997
  O         6.8897600452       16.2237088062       14.3593865558
  O        11.0634638638       18.4037995902       16.0882738149
  O        13.6875681528        6.0414350555       10.1487473781
  O         6.5242344819        9.6715521446       15.6443136703
  O        17.5627796281       15.7388062316        0.4628498291
  O         8.0899003619       10.7939710448        6.2101676098
  O         5.6525102822       16.2561249107        9.9805961037
  O        16.3187370793       16.7535325041        7.1158137457
  O        12.0868389630        8.7054752988        4.6044262472
  O         0.0365919254       14.6649374517       18.9718439686
  O         6.0474415174       17.2179451428       16.8748947862
  O         5.0637861984        6.4662920513        1.2600988354
  O        19.4416399990       15.8994871776        9.0898208669
  O         4.9059062216       20.3496961900       12.3721060243
  O        14.4321021228       13.6786169343       13.2853607312
  O        14.0974491965        9.3240417227       12.2000228317
  O         6.7445171781       19.8770394646       16.6450209903
  O        14.7617505595       17.8142521579       16.2358066519
  O        15.9039667465       12.2711762994        0.9400477287
  O        12.8652519289       19.0430693905        1.3605299684
  O        10.2290790105        5.8432028885       19.1862805651
  O         9.7292694657        8.6838042425        6.0272028358
  O         6.3637332018        5.4682273821       13.2848139524
  O        16.0679079476       18.5274245746        9.6688945952
  O         6.2420933490       11.0277474758        0.4038169838
  O        12.5349165175       18.3010007513        4.0518346892
  O        11.7998929620        5.5794914119       15.9261768379
  O         6.3732794279       15.8218395331        0.4302111922
  O        10.5037227338       16.4785619163        9.2411284793
  O         2.6849331976       17.2923148379        7.9745104883
  O         2.5850847898        4.1440286702        8.7596108170
  O         1.5328762355        2.2669111426        7.1034390322
  O        13.6855794208       17.7921147882       10.9781416267
  O         8.6553679530       14.5869023229        8.2696255943
  O         7.2548863347       10.2352647618        8.8229910518
  O         3.7466577589        3.6615842986       18.7814937566
  O        15.0080830349       10.2925403732        9.6788151463
  O        15.4110126536       13.6656312403       17.0469489982
  O        17.8803447291        0.7163332168       10.4884819058
  O        15.2146900993       15.2053806936        9.1266203888
  O         1.2028199305        4.8992569971        3.2519244856
  O        13.5269727180        6.8784145351       14.2620032315
  O         7.4466909782       10.2297074185        2.8287545614
  O        15.2431399675        7.7732401023        8.5985213764
  O         3.8163056437        6.4613420172        7.8341677390
  O         4.9694315876        8.5861605610        9.2438972131
  O        18.5539729734        4.3265618027       17.8086651894
  O         0.2905419998       10.4055398395       20.1880424617
  O         8.5966183086       16.7263765737       18.9686594369
  O         9.8945454613       11.6495018121        3.4994717387
  O        11.2907480289       11.1421736210       12.5335698096
  O         6.6138547255        5.7106631548       16.1674880355
  O         4.9692233962       13.4321457329        6.9309584572
  O         6.5844006302       12.9105657209        9.1298037375
  O        15.0089344582       11.1388920625       14.1005923260
  O        12.1283009281       17.8206637885        7.4477543680
  O        15.1029918005       14.6857809829       19.6294368200
  O        19.3712949086       14.5412295196       12.4642918788
  O        13.8185775469       11.4370142450       16.5338830984
  O        18.2764096412        4.5606395866        7.2791267589
  O        18.9502515239        4.9670241586       11.7898257100
  O         6.0329762009        1.3641485191        8.5637029768
  O         6.7876006310       14.8351128224        2.8431928625
  O        12.7721355084       12.5401315510       10.5727569354
  O         3.9096929862        9.6626990562       13.5964349289
  O         8.7709077347        4.9013710920        1.5178437714
  O        14.7447390387        5.1325283347        3.8026279341
  O         6.1446528928       19.7762173946        6.1258405177
  O        11.8769582220        1.9390137621        7.6791762004
  O        16.4938288694       19.5944603541       17.5670420762
  O         3.7469745976       10.8858947633       18.9381105974
  O         7.6732323717       15.6657786024       11.7080998538
  O         7.5299562920        7.7997272637        1.5074161523
  O         7.5980470979        2.0072141145        5.0521436060
  O        15.5675301254       12.9719073133       10.8033476748
  O        18.7052792102        3.2265187745        2.7601117086
  O         8.4970995063       18.1384048423        6.2898604802
  O        15.9996781205        9.0097091563        4.0721624679
  O        12.4555939075       10.8037331016        2.8523862947
  O         9.0883435118        5.4576640727        7.6008763211
  O         8.6710272241        7.1225990164       17.2988113135
  O         1.9224550179        7.7596000661        6.2915585449
  O        12.5308515247        6.6154134201        2.9233882859
  O         8.1222230252        9.3122046315       18.8583559689
  O         8.1727411698       13.0298426744       12.2981066969
  O        -0.0423995650        6.0537661097        5.4298931938
  O         0.2207106459        7.3642093592       12.4793364299
  O        13.0243626841       19.6003997116       14.5859700478
  O         3.2510200545       15.5820076982        3.1748682882
  O        19.3303066033        8.2676099454       15.0869333588
  O        12.5362378767        1.0400691387        5.1463391095
  O        16.6447760282        2.3429558025        5.6150304690
  O         9.1764654054       19.1865287418       17.9577307778
  O        19.5727869516       11.5943357678        4.7776269041
  O         1.0400328306       16.2537461350        1.4414921550
  O         2.3893887422        6.8988581571        1.8048194182
  O        14.5435242328        9.2455069753       17.9740801807
  O         2.4989738868        6.2110271468       11.4876741549
  O        10.0789722452       19.6762329982        7.8328889771
  O        13.3486322328       15.4258714923        6.6209457964
  O         3.2305978670        8.2770121134       17.8736580233
  O         0.2031507624        9.3292539676       10.4614508322
  O         1.0446888288       10.3355651641        6.8728914732
  O        10.9064016326        1.7638662384       15.5774104583
  O         5.6910230842       13.5260963524       18.8696088599
  O         0.8713025020       18.7696944106        0.1325734588
  O         9.4282397725       14.4447504164        3.2515341154
  O        17.4220897845       10.7647541183       11.4284705871
  O         2.5951763026        8.7473649097        3.8509221311
  O         9.5634279862       16.5584807976       14.8428705263
  O        -0.0375470817       18.2760460320       12.8669938344
  O         1.0273243420       14.1840704240        7.0373843232
  O         0.4428377203       17.8007462360        6.4469779835
  O         9.9423485950       12.7685454129        6.7034808843
  O         5.8028480913       16.4881052759        4.8693796911
  O        19.5685058198       14.1739004436       15.2346972092
  O         0.3127709114        5.3130356763        9.3468064052
  O        13.7583263814        4.7901186278        7.6957564722
  O        15.2540591972        2.9394268976       10.6708436431
  O         2.0999052252        0.1109200195        8.7434764349
  O        11.4851739202        8.3733010170       13.1691237293
  O         2.1651452758        5.2799425387       15.1879679816
  O         7.0266691713        3.5867083187        7.1910758105
  O        10.4931260597        4.9866459851        3.8145801309
  O        13.7032760961       10.7405552587        0.3725706717
  O        17.4742639345        7.9515178879        2.0150727322
  O         2.3404081743        8.1040198421       15.2481989060
  O        17.8393855651       14.8872301607        3.0428804575
  O         9.4088543049       15.0140995521       17.0565860823
  O         9.6620218174       18.8599181269       10.4734979927
  O        13.4020950813        4.5914797881       12.7438469765
  O        15.9176629649        5.6293377649        6.2065655979
  O        11.7946142053       13.3436214722       14.2805207699
  O        17.7101872976       10.4789005679       14.2766605362
  O         2.2125767044       15.5084079066       10.0758605848
  O         9.1600097464        2.5116723867       17.7298850527
  O        15.1609264778        0.5366293246        0.2935742540
  O         0.5909777440        3.4836729368       13.6028481770
  O         2.0998237528       16.4760966873       12.7042249974
  O        12.2757423364        7.8415414912       17.4212915729
  O        17.6423568028        7.7614108242        5.8970098936
  O        16.8115692390        5.2324893665        2.1746558735
  O        12.1142169718       13.3645157825        5.2286011432
  O        15.0808853503       11.4814852998        3.4308452821
  O         4.9303300180        4.8961944710        5.8798593935
  O        17.7366110114       11.1509305599       18.8870534003
  O         4.7887001684        2.1306826019       16.5969816801
  O        18.7756183797       11.4689943321        8.4427555053
  O        11.2711178707        4.3313380848        6.5286672049
  O         0.4445435004       12.6149903639       10.6303476951
  O        16.2479258635        7.8429022257       11.4746614646
  O        10.8817331660        4.5424956958       11.6948588886
  O        14.9558399118       17.2857416910        4.7266656029
  O         1.8380860150       12.7074569472       20.2633027137
  O         6.2987962917        1.6041897122        2.7581575916
  O        11.9754857110        0.0335400097       11.8773062086
  O        10.2597084671        0.3668850532        0.6190126954
  O        10.2752891587       15.1731456366       12.6430471561
  O        12.6120505977       16.5613962404       17.3751091867
  O        11.3141242436       10.4098330561       17.1558678558
  H         3.1112791595        2.9254146884       11.4515068431
  H         2.8211105895        4.4342346179       11.8721098005
  H        17.2195615925        2.1011501526        2.4286896050
  H        15.7352420214        1.8907281025        2.9768412479
  H        14.4912966418       11.1242150718        8.2092616991
  H        13.0545908271       11.3348121610        7.6169925268
  H         3.5996149986        0.5876750287       -0.2470962557
  H         2.3361863665       -0.2054963062        0.2946119536
  H         8.3565744152        3.2081507100        1.0658680746
  H         8.9901817564        1.7573882941        0.9896307189
  H        14.9877196133       13.7529611980        5.2681366175
  H        14.7095353357       12.5300717467        6.3207916812
  H         5.6795099825        6.3437101667        2.9952826810
  H         5.7123177223        7.4749385626        4.1026127614
  H         7.8845999121       10.3488524600       16.2088432720
  H         8.2749933143       11.7479663400       16.8127830959
  H        15.1695360980        6.5799043087       14.5996012387
  H        16.7176464912        6.6684618490       14.9302881851
  H        10.2611707477        1.2141979208       12.5532909700
  H        10.1468128359        1.7725307325       14.0184221386
  H        10.9278235436       14.2479257370       17.1381006992
  H        12.0477854866       13.4480270531       17.9012010288
  H         1.6138627728       14.3103045809       14.9523065759
  H         3.1055115450       14.6454922773       15.3964716243
  H         6.5171116989       19.6146474285        3.0513812014
  H         7.5867820356       18.4716737140        2.9691249625
  H        17.0542787607        8.2747043304       19.9851997312
  H        17.5032059585        7.9030643320       18.4976547556
  H        -0.1864598785       17.7162395306        9.5594645537
  H        -0.7483032202       19.1407526715       10.0756353029
  H         4.5329319526       14.3339094244       17.5327591957
  H         4.7821431108       15.7041067588       16.8226197641
  H         4.8365756157       12.8745657238       13.5158837613
  H         3.3264387440       13.1759580004       13.5547551153
  H        13.5446549309        1.9268088022        4.1307770222
  H        13.4572275842        2.3974911664        2.6351810001
  H        12.2382372485        7.3756087395        1.3228304391
  H        11.4925057804        8.6154780397        0.5734649050
  H        16.2214484230        3.2325422750       16.1620382445
  H        15.6294336734        4.6705408009       15.9285152938
  H        19.3116910955        1.9580279468       13.4538702347
  H        19.1505452959        0.3831299381       13.2450522548
  H         4.2622566764        6.8801215751       18.0539072004
  H         5.4292934090        5.9582336378       17.4578351431
  H         6.6579084769        0.4148155614       11.3647629207
  H         7.0322851615        0.8566007722        9.9224208460
  H         3.9879699369       14.8114913742        6.3190094382
  H         3.3592126517       15.6012456833        5.0877218291
  H         6.5346672984        8.2982359388       12.6514891440
  H         7.7336167512        9.3452597710       12.4639568828
  H        15.4340340050        2.5163814790        8.8774977140
  H        14.5519581425        3.1802688949        7.7916916894
  H        14.4246855339       18.7895164992       13.7152295135
  H        15.5201496553       19.5370205631       12.9245352214
  H        10.9079496757       11.8966010242        7.9006934239
  H        11.8421354968       11.8312400361        9.2061969571
  H        10.1144536315       15.8229435137        4.4723955421
  H         9.7195902580       17.1178784523        5.2878584870
  H         1.3728939161        7.4722061621       20.1418637758
  H         0.7431696770        8.8174965081       19.5938357242
  H         9.3132889012        6.6437448247       14.3647465228
  H         8.4711611959        7.9551919489       14.1005507977
  H         7.9467267543        1.1364347335       13.5748426925
  H         6.3524481016        0.9943769623       13.4967839979
  H        11.2920373484        7.6254710346       11.5606283867
  H        10.7769850223        7.6912127099       10.0469904142
  H        12.7173804250       12.0466435061       -0.0082254000
  H        11.2144243343       12.3020565521        0.1394894564
  H         9.8073642389        0.2000931161        3.8029721543
  H        10.8070845955        1.1654763587        4.5602622236
  H         2.0488937268       19.9799207095        4.0761691057
  H         0.5963030601       20.3687728384        4.6197037078
  H         7.4313790818        2.6663017975       15.0051317779
  H         8.2575633035        3.0290620447       16.3286559998
  H         8.3079071510       11.3161377965       11.5973407224
  H         9.5969041020       10.5010879155       11.7751686486
  H        10.9865440449       10.2943118339       -0.7940028391
  H         9.7262246239        9.8455657971       -0.0336034031
  H         1.9936951821        9.8338524143       10.0450699933
  H         2.8254041872       10.9884633802        9.3545891900
  H         6.7639665266       13.3663798737       17.5481880176
  H         6.9647871246       13.3019885997       15.9434854107
  H         3.5292530565        1.2958220589       15.3983171719
  H         3.5087299338        0.8179122858       13.9098242467
  H        19.4542156452        7.2117121543       18.1680096630
  H        18.5543978921        6.0366958976       17.5973861138
  H         3.3467919452        2.7657840426        9.5113666242
  H         3.0721535374        1.2074059634        9.6607447627
  H         5.1231684281        7.8177835418       10.8235115235
  H         4.1244884903        7.0459194936       11.7449410285
  H        18.3240716897        1.9717116437        5.4248049738
  H        19.8213378003        2.3048582410        5.8458972025
  H         4.5646634169        1.3451672288        3.0077920603
  H         3.3181132885        0.9289686263        2.1862907137
  H        14.3285468015        2.9989791277       15.2327143506
  H        13.6108599361        3.2392477111       13.8414006593
  H        16.8558149530        1.5017000309       13.2974034293
  H        15.3121484064        1.8681884711       13.6094480725
  H        12.3455671512        1.6621688909       10.9262216509
  H        13.4129872757        2.7470659269       10.5462320599
  H        18.0239071373       15.9580050285       10.2492055934
  H        17.4141211346       16.2294044333       11.6974643623
  H        17.9060095152       18.5731197970        1.5234970590
  H        16.6986466917       18.9622180025        0.5859097057
  H         5.6372571353        9.5243644849        5.3854846369
  H         6.2117089782        9.6878365395        3.9435159169
  H        12.7883320638       16.5608317919       -0.6787902705
  H        13.6998182151       15.8188818550        0.3368781910
  H        16.9807499173       13.0991021736        6.1635478164
  H        18.1863471446       14.1231216232        6.1798903331
  H        10.6134867473        9.7280251282        8.8274661046
  H         9.9582262509        8.6050078484        7.9820123203
  H         6.9477964070       11.7235011478        5.1134196689
  H         5.7873946002       12.1187399439        4.0888124250
  H         3.4423537073       17.5402585953       11.8754701058
  H         4.5907654946       17.5116541654       10.7871287772
  H        10.0662659964        4.6345755306       13.3191506421
  H         9.0946097013        4.2976096605       14.5666791078
  H        14.4335520197       20.3879022425        7.7026313491
  H        15.0433145088       19.0532507830        8.2087723342
  H         5.1864167295        4.4848734266       14.0690624879
  H         4.0066910681        3.5109365982       13.7424305230
  H         4.2267546731       11.5091306259       17.1911289297
  H         4.6709234031       12.4764717791       16.0328677512
  H         2.4400534384        2.7918234955        5.5438423797
  H         3.1383486567        2.5290159826        4.1473003851
  H        18.4813526622       12.9845125018       16.1164081411
  H        17.9714476861       11.9330170477       17.2459384653
  H         4.0138779650       13.9908969489        2.8355217493
  H         4.1702755251       12.9318773419        1.7126217021
  H         2.1478417931        3.5716067541       17.8931231222
  H         1.7123914558        4.2850157239       16.5538528818
  H        18.3727260848        1.7835083120       15.8205912945
  H        17.1200507637        1.2346038123       16.6234329232
  H        19.9359923219       18.6092168028        3.3224066664
  H        19.6167061866       17.2738079567        2.5192737135
  H        17.6036076846       16.2103055719        6.1193995088
  H        19.1364501962       16.4268949868        5.8369477987
  H        16.1039451433        5.2712397446       12.9411965923
  H        16.2879889766        6.1958878695       11.7109618266
  H        17.9554304808        8.4678320966        7.5684370823
  H        17.8904475804        9.7500321997        8.4642536431
  H        12.9837330841       16.0197069314       10.9488521660
  H        11.6671545550       15.6719646816       10.1993639788
  H         6.3047259381       16.2482226870        6.5436641613
  H         7.4224209372       17.0532545788        7.2316473176
  H         4.1794343455       18.3145679220        1.1998236974
  H         5.3848794728       17.9772180149        2.1691389720
  H        15.5234428861       14.8823740952       15.7994112921
  H        15.0435601279       14.9197050870       14.3190017931
  H        14.2099029597        9.7486271790        6.5940870538
  H        14.5487453590        8.2585900888        6.9723537502
  H        18.7282967467       18.7904686133        6.9253289858
  H        17.5168794821       19.3377547215        6.1079681935
  H        17.7898138176       18.5569776301        3.8746091026
  H        16.8853232017       19.8437613851        3.7770039953
  H         7.0565554923       13.1797394817       13.7084252715
  H         6.4590194914       14.4878398215       14.3286919385
  H         7.6912463159        6.4366825330        4.5226696836
  H         9.2205907734        5.9396581518        4.5392585346
  H         5.0804204936       13.3158008616       10.0863578592
  H         4.2239458699       13.3839788427       11.4223000309
  H        12.4002783782        3.4246355156       18.3590870672
  H        11.2426748141        4.5557183024       18.5597610532
  H        12.1885854786       14.9674410430        2.2962060599
  H        12.4603238065       13.6202936603        1.5803474381
  H        20.9530282356        1.0519190471       15.3558468406
  H        20.5966093375        2.0750544987       16.4702536594
  H        14.3284025159       14.5258501665        3.1000971773
  H        14.9934400341       15.7055418219        3.9467509830
  H        18.2644121115        1.0981032418        7.6853573431
  H        19.5135612071        2.0027572451        8.0062394054
  H        19.0824588304       17.4310316360       16.6341454243
  H        18.2675004212       16.9695997956       15.3780717652
  H         0.5007360484       12.7593290089        3.5325295253
  H        -0.2578425860       13.8832834857        2.7779162953
  H        16.8476579889       16.1856641544       14.0947697849
  H        16.5822571136       17.5774915146       13.4777036340
  H        18.3252133185       19.1782410702       17.7284379007
  H        19.6461587231       19.7114572228       16.9944696252
  H        14.6130573718        3.2623477870       17.9942210435
  H        14.4097473408        2.1172261440       19.0760708703
  H        19.4384215361       10.2470197895        3.6227908929
  H        20.6164248000        9.2782834952        3.2854080898
  H        11.3076965528       16.2813191954        0.9448039470
  H         9.7756191463       16.4003652988        0.6014354800
  H         7.4183414997        2.7309560953       11.4624495020
  H         8.6124910105        3.1306443486       12.3191091579
  H         9.5561012070       19.0564373056        1.8464103155
  H         9.7974694177       17.6953625785        2.5702462940
  H         2.0872974867       12.8767681644        7.8548332038
  H         3.5786487716       12.5179392784        7.5312035422
  H         6.4116041764       16.6281088061       15.1238365617
  H         7.8434526674       16.4254799149       14.5605798018
  H        11.5660833792       17.7223989720       16.6181168706
  H        10.4243989725       18.8201403973       16.7303302027
  H        13.8650753762        5.5260333215       10.9684359844
  H        12.8210113294        6.5140460030       10.3259368375
  H         6.5789928369        9.4494629574       14.6843709950
  H         5.7569329908       10.2878956568       15.7508605401
  H        17.7125367366       15.5227774225        1.4280636369
  H        17.5485532281       16.7348712528        0.4200635683
  H         8.6923390771       10.0075562641        6.0308806896
  H         8.7229135091       11.5376051787        6.4097020200